16
	Energy: -192973.9046816
C          0.00000        1.41552        0.65715
H          0.00000        2.28847        1.28331
C          0.00000        1.41552       -0.65715
H          0.00000        2.28847       -1.28331
C          0.00000        0.00000        1.25751
H          0.00000        0.00000        2.33914
C          0.00000        0.00000       -1.25751
H          0.00000        0.00000       -2.33914
C          1.22588       -0.70776       -0.65715
C          1.22588       -0.70776        0.65715
H          1.98187       -1.14423       -1.28331
H          1.98187       -1.14423        1.28331
C         -1.22588       -0.70776       -0.65715
C         -1.22588       -0.70776        0.65715
H         -1.98187       -1.14423       -1.28331
H         -1.98187       -1.14423        1.28331
