8
	Energy: -749699.7082591
C         -0.53507       -0.34550       -0.41454
H         -0.40920       -1.41525       -0.40266
C          0.53507        0.34550        0.41454
H          0.40920        1.41525        0.40266
Cl         2.13659       -0.02641       -0.23797
Cl        -2.13659        0.02641        0.23797
F          0.46367       -0.11174        1.67228
F         -0.46367        0.11174       -1.67228
