5
	Energy: -375212.7437239
C          0.00000        0.80528        0.00000
H          0.33999        1.30156        0.89329
H          0.33999        1.30156       -0.89329
Cl         0.66974       -0.83468        0.00000
F         -1.34061        0.75052        0.00000
