36
	Energy:      85.3296694
C          1.25537        3.54280        0.00000
C          0.00000        2.84680        0.00000
C          0.00000        1.43842        0.00000
C          1.24571        0.71921        0.00000
C          2.46540        1.42340        0.00000
C          2.44047        2.85859        0.00000
C         -1.24571        0.71921        0.00000
C          1.24571       -0.71921        0.00000
C          0.00000       -1.43842        0.00000
C         -1.24571       -0.71921        0.00000
C          0.00000       -2.84680        0.00000
C          1.25537       -3.54280        0.00000
C          2.44047       -2.85859        0.00000
C          2.46540       -1.42340        0.00000
C          3.69584       -0.68422        0.00000
C          3.69584        0.68422        0.00000
H          4.63259        1.24075        0.00000
H          4.63259       -1.24075        0.00000
H          1.24178        4.63232        0.00000
H          3.39081        3.39157        0.00000
H          1.24178       -4.63232        0.00000
H          3.39081       -3.39157        0.00000
C         -1.25537        3.54280        0.00000
C         -2.44047        2.85859        0.00000
C         -2.46540        1.42340        0.00000
H         -1.24178        4.63232        0.00000
H         -3.39081        3.39157        0.00000
C         -3.69584        0.68422        0.00000
C         -3.69584       -0.68422        0.00000
C         -2.46540       -1.42340        0.00000
H         -4.63259        1.24075        0.00000
H         -4.63259       -1.24075        0.00000
C         -1.25537       -3.54280        0.00000
H         -1.24178       -4.63232        0.00000
C         -2.44047       -2.85859        0.00000
H         -3.39081       -3.39157        0.00000
